FoamFile
{
    version     2.0;
    format      ascii;
    class       polyBoundaryMesh;
    location    "constant/polyMesh";
    object      boundary;
}

4         
(
    invwall
    {
        type Unspecified;
        nFaces 32544;
        startFace 31936;
    }
    supinlet
    {
        type Unspecified;
        nFaces 80;
        startFace 64480;
    }
    supoutlet
    {
        type Unspecified;
        nFaces 64;
        startFace 64560;
    }
    viswall
    {
        type Unspecified;
        nFaces 208;
        startFace 64624;
    }
)
